#Lammps data file. Geometry for PEG

 5163 atoms
 3830 bonds
 2953 angles
 708 dihedrals

 5 atom types
 6 bond types
 13 angle types
 23 dihedral types


 0.0000 28.1360 xlo xhi
 0.0000 28.1360 ylo yhi
 0.0000 67.9600 zlo zhi

 Masses

 1 12.0110
 2 12.0110
 3 12.0110
 4 15.9994
 5 1.00800

 Pair Coeffs

 1 0.0698251313903 3.55
 2 0.0698251313903 3.55
 3 0.0698251313903 3.55
 4 0.155327281414 3.166
 5 0.0 0.0

 Bond Coeffs

 1 572.0258 1.4200
 2 572.0258 1.4200
 3 572.0258 1.4200
 4 572.0258 1.4200
 5 572.0258 1.4200
 6 412.285 1.000

 Angle Coeffs

 1 67.1524 120.0000
 2 67.1524 120.0000
 3 67.1524 120.0000
 4 67.1524 120.0000
 5 67.1524 120.0000
 6 67.1524 120.0000
 7 67.1524 120.0000
 8 67.1524 120.0000
 9 67.1524 120.0000
 10 67.1524 120.0000
 11 67.1524 120.0000
 12 67.1524 120.0000
 13 45.770 109.4700

 Dihedral Coeffs

 1 0.0000 0 0 0.0
 2 0.0000 0 0 0.0
 3 0.0000 0 0 0.0
 4 0.0000 0 0 0.0
 5 0.0000 0 0 0.0
 6 0.0000 0 0 0.0
 7 0.0000 0 0 0.0
 8 0.0000 0 0 0.0
 9 0.0000 0 0 0.0
 10 0.0000 0 0 0.0
 11 0.0000 0 0 0.0
 12 0.0000 0 0 0.0
 13 0.0000 0 0 0.0
 14 0.0000 0 0 0.0
 15 0.0000 0 0 0.0
 16 0.0000 0 0 0.0
 17 0.0000 0 0 0.0
 18 0.0000 0 0 0.0
 19 0.0000 0 0 0.0
 20 0.0000 0 0 0.0
 21 0.0000 0 0 0.0
 22 0.0000 0 0 0.0
 23 0.0000 0 0 0.0

 Atoms

 1 1 2  0.0000 18.0000 13.8700 10.0800 # C2
 2 1 2  0.0000 17.5900 15.2300 10.0600 # C2
 3 1 2  0.0000 15.9500 17.5000 10.0600 # C2
 4 1 2  0.0000 14.5900 17.9200 10.0400 # C2
 5 1 2  0.0000 11.8400 17.3000 10.0500 # C2
 6 1 2  0.0000 10.6500 16.5200 10.0700 # C2
 7 1 2  0.0000  9.5300 13.9400 10.1100 # C2
 8 1 2  0.0000  9.9300 12.5800 10.1000 # C2
 9 1 2  0.0000 11.7900 10.4400 10.1100 # C2
 10 1 2  0.0000 13.1300  9.9800 10.0900 # C2
 11 1 2  0.0000 15.9200 10.3800 10.0800 # C2
 12 1 2  0.0000 17.0500 11.2400 10.0900 # C2
 13 1 3  0.0000 17.3500 15.9100 11.2800 # C3
 14 1 3  0.0000 16.5200 17.0600 11.2800 # C3
 15 1 3  0.0000 13.8700 17.9500 11.2700 # C3
 16 1 3  0.0000 12.4800 17.6400 11.2700 # C3
 17 1 3  0.0000 10.2000 15.9700 11.3000 # C3
 18 1 3  0.0000  9.6300 14.6800 11.3200 # C3
 19 1 3  0.0000 10.2700 11.9400 11.3200 # C3
 20 1 3  0.0000 11.2100 10.8800 11.3300 # C3
 21 1 3  0.0000 13.8500  9.9000 11.3100 # C3
 22 1 3  0.0000 15.2600 10.0900 11.3000 # C3
 23 1 3  0.0000 17.4700 11.8200 11.3100 # C3
 24 1 3  0.0000 17.9400 13.1600 11.3100 # C3
 25 1 3  0.0000 15.9300 17.4800 12.5000 # C3
 26 1 3  0.0000 14.5900 17.9400 12.4900 # C3
 27 1 3  0.0000 11.8300 17.3600 12.5000 # C3
 28 1 3  0.0000 10.6900 16.5300 12.5200 # C3
 29 1 3  0.0000  9.5900 13.9600 12.5500 # C3
 30 1 3  0.0000  9.9300 12.5800 12.5500 # C3
 31 1 3  0.0000 11.8200 10.5000 12.5500 # C3
 32 1 3  0.0000 13.1500  9.9900 12.5400 # C3
 33 1 3  0.0000 15.9300 10.3600 12.5300 # C3
 34 1 3  0.0000 17.0400 11.2400 12.5300 # C3
 35 1 3  0.0000 17.9600 13.8900 12.5300 # C3
 36 1 3  0.0000 17.6700 15.2800 12.5100 # C3
 37 1 3  0.0000 13.8700 18.0000 13.7200 # C3
 38 1 3  0.0000 12.4900 17.6800 13.7200 # C3
 39 1 3  0.0000 10.2500 15.9800 13.7500 # C3
 40 1 3  0.0000  9.6700 14.6800 13.7700 # C3
 41 1 3  0.0000 10.2900 11.9700 13.7700 # C3
 42 1 3  0.0000 11.2500 10.9200 13.7700 # C3
 43 1 3  0.0000 13.8600  9.9000 13.7600 # C3
 44 1 3  0.0000 15.2700 10.0800 13.7500 # C3
 45 1 3  0.0000 17.4500 11.8300 13.7500 # C3
 46 1 3  0.0000 17.8800 13.1800 13.7500 # C3
 47 1 3  0.0000 17.3800 15.9500 13.7300 # C3
 48 1 3  0.0000 16.5100 17.0700 13.7300 # C3
 49 1 3  0.0000 11.8400 17.4000 14.9500 # C3
 50 1 3  0.0000 10.7300 16.5200 14.9700 # C3
 51 1 3  0.0000  9.6200 13.9700 14.9900 # C3
 52 1 3  0.0000  9.9400 12.5900 15.0000 # C3
 53 1 3  0.0000 11.8400 10.5100 14.9900 # C3
 54 1 3  0.0000 13.1600  9.9900 14.9900 # C3
 55 1 3  0.0000 15.9400 10.3500 14.9800 # C3
 56 1 3  0.0000 17.0400 11.2400 14.9800 # C3
 57 1 3  0.0000 17.9200 13.9100 14.9700 # C3
 58 1 3  0.0000 17.6700 15.3000 14.9600 # C3
 59 1 3  0.0000 15.9300 17.5000 14.9500 # C3
 60 1 3  0.0000 14.5900 17.9700 14.9400 # C3
 61 1 3  0.0000 10.2700 16.0000 16.2000 # C3
 62 1 3  0.0000  9.7100 14.6900 16.2100 # C3
 63 1 3  0.0000 10.2800 11.9600 16.2200 # C3
 64 1 3  0.0000 11.2600 10.9300 16.2200 # C3
 65 1 3  0.0000 13.8700  9.9100 16.2100 # C3
 66 1 3  0.0000 15.2800 10.0700 16.2000 # C3
 67 1 3  0.0000 17.4400 11.8400 16.2000 # C3
 68 1 3  0.0000 17.8500 13.1900 16.2000 # C3
 69 1 3  0.0000 17.3900 15.9700 16.1800 # C3
 70 1 3  0.0000 16.5100 17.0900 16.1700 # C3
 71 1 3  0.0000 13.8700 18.0200 16.1700 # C3
 72 1 3  0.0000 12.4800 17.7400 16.1700 # C3
 73 1 3  0.0000  9.6700 13.9800 17.4400 # C3
 74 1 3  0.0000  9.9500 12.5900 17.4400 # C3
 75 1 3  0.0000 11.8500 10.5200 17.4400 # C3
 76 1 3  0.0000 13.1700 10.0000 17.4400 # C3
 77 1 3  0.0000 15.9500 10.3300 17.4300 # C3
 78 1 3  0.0000 17.0500 11.2300 17.4300 # C3
 79 1 3  0.0000 17.8600 13.9100 17.4200 # C3
 80 1 3  0.0000 17.6500 15.3200 17.4100 # C3
 81 1 3  0.0000 15.9200 17.5200 17.4000 # C3
 82 1 3  0.0000 14.5800 17.9700 17.3900 # C3
 83 1 3  0.0000 11.8300 17.4500 17.4000 # C3
 84 1 3  0.0000 10.7100 16.5800 17.4100 # C3
 85 1 3  0.0000 10.2900 11.9600 18.6700 # C3
 86 1 3  0.0000 11.2600 10.9300 18.6700 # C3
 87 1 3  0.0000 13.8800  9.8900 18.6600 # C3
 88 1 3  0.0000 15.2900 10.0500 18.6500 # C3
 89 1 3  0.0000 17.4300 11.8300 18.6500 # C3
 90 1 3  0.0000 17.7600 13.2100 18.6400 # C3
 91 1 3  0.0000 17.3600 15.9700 18.6300 # C3
 92 1 3  0.0000 16.5000 17.1000 18.6200 # C3
 93 1 3  0.0000 13.8700 18.0500 18.6200 # C3
 94 1 3  0.0000 12.4700 17.7800 18.6200 # C3
 95 1 3  0.0000 10.2800 16.0200 18.6400 # C3
 96 1 3  0.0000  9.7400 14.7100 18.6600 # C3
 97 1 3  0.0000 11.8700 10.5300 19.8900 # C3
 98 1 3  0.0000 13.1800  9.9900 19.8900 # C3
 99 1 3  0.0000 15.9600 10.3200 19.8800 # C3
 100 1 3  0.0000 17.0500 11.2300 19.8800 # C3
 101 1 3  0.0000 17.8200 13.9200 19.8700 # C3
 102 1 3  0.0000 17.6500 15.3300 19.8600 # C3
 103 1 3  0.0000 15.9200 17.5400 19.8500 # C3
 104 1 3  0.0000 14.5900 18.0100 19.8400 # C3
 105 1 3  0.0000 11.8300 17.4900 19.8500 # C3
 106 1 3  0.0000 10.7200 16.6100 19.8600 # C3
 107 1 3  0.0000  9.6900 14.0000 19.8900 # C3
 108 1 3  0.0000  9.9700 12.6100 19.8900 # C3
 109 1 3  0.0000 13.8900  9.8800 21.1100 # C3
 110 1 3  0.0000 15.3000 10.0400 21.1100 # C3
 111 1 3  0.0000 17.4300 11.8500 21.1000 # C3
 112 1 3  0.0000 17.8200 13.2100 21.0900 # C3
 113 1 3  0.0000 17.3800 16.0000 21.0800 # C3
 114 1 3  0.0000 16.5000 17.1200 21.0700 # C3
 115 1 3  0.0000 13.8700 18.0800 21.0700 # C3
 116 1 3  0.0000 12.4800 17.8100 21.0700 # C3
 117 1 3  0.0000 10.2900 16.0400 21.0900 # C3
 118 1 3  0.0000  9.7600 14.7200 21.1000 # C3
 119 1 3  0.0000 10.3100 11.9800 21.1200 # C3
 120 1 3  0.0000 11.2900 10.9600 21.1200 # C3
 121 1 3  0.0000 15.9600 10.3300 22.3300 # C3
 122 1 3  0.0000 17.0400 11.2500 22.3300 # C3
 123 1 3  0.0000 17.8700 13.9300 22.3100 # C3
 124 1 3  0.0000 17.6500 15.3400 22.3100 # C3
 125 1 3  0.0000 15.9200 17.5400 22.3000 # C3
 126 1 3  0.0000 14.5900 18.0300 22.2900 # C3
 127 1 3  0.0000 11.8300 17.5100 22.3000 # C3
 128 1 3  0.0000 10.7200 16.6200 22.3100 # C3
 129 1 3  0.0000  9.7000 14.0100 22.3300 # C3
 130 1 3  0.0000  9.9900 12.6200 22.3400 # C3
 131 1 3  0.0000 11.8800 10.5400 22.3400 # C3
 132 1 3  0.0000 13.1800  9.9800 22.3300 # C3
 133 1 3  0.0000 17.4300 11.8600 23.5500 # C3
 134 1 3  0.0000 17.8300 13.2200 23.5400 # C3
 135 1 3  0.0000 17.3800 16.0000 23.5300 # C3
 136 1 3  0.0000 16.5000 17.1200 23.5200 # C3
 137 1 3  0.0000 13.8800 18.0900 23.5200 # C3
 138 1 3  0.0000 12.4900 17.8200 23.5200 # C3
 139 1 3  0.0000 10.3000 16.0500 23.5400 # C3
 140 1 3  0.0000  9.7700 14.7400 23.5500 # C3
 141 1 3  0.0000 10.3300 11.9900 23.5600 # C3
 142 1 3  0.0000 11.2900 10.9500 23.5600 # C3
 143 1 3  0.0000 13.8900  9.8700 23.5600 # C3
 144 1 3  0.0000 15.3000 10.0500 23.5600 # C3
 145 1 3  0.0000 17.8900 13.9400 24.7600 # C3
 146 1 3  0.0000 17.6600 15.3500 24.7500 # C3
 147 1 3  0.0000 15.9300 17.5500 24.7500 # C3
 148 1 3  0.0000 14.6000 18.0500 24.7400 # C3
 149 1 3  0.0000 11.8400 17.5200 24.7500 # C3
 150 1 3  0.0000 10.7400 16.6300 24.7600 # C3
 151 1 3  0.0000  9.7000 14.0300 24.7700 # C3
 152 1 3  0.0000 10.0000 12.6400 24.7800 # C3
 153 1 3  0.0000 11.8800 10.5300 24.7900 # C3
 154 1 3  0.0000 13.1900  9.9800 24.7800 # C3
 155 1 3  0.0000 15.9600 10.3400 24.7800 # C3
 156 1 3  0.0000 17.0400 11.2700 24.7700 # C3
 157 1 3  0.0000 17.3800 16.0100 25.9800 # C3
 158 1 3  0.0000 16.5100 17.1300 25.9700 # C3
 159 1 3  0.0000 13.8900 18.1200 25.9700 # C3
 160 1 3  0.0000 12.5000 17.8300 25.9700 # C3
 161 1 3  0.0000 10.3100 16.0600 25.9900 # C3
 162 1 3  0.0000  9.7600 14.7500 25.9900 # C3
 163 1 3  0.0000 10.3600 12.0200 26.0100 # C3
 164 1 3  0.0000 11.3100 10.9700 26.0100 # C3
 165 1 3  0.0000 13.9000  9.8800 26.0100 # C3
 166 1 3  0.0000 15.3100 10.0600 26.0000 # C3
 167 1 3  0.0000 17.4300 11.8800 26.0000 # C3
 168 1 3  0.0000 17.8500 13.2300 25.9900 # C3
 169 1 3  0.0000 15.9300 17.5600 27.2000 # C3
 170 1 3  0.0000 14.6100 18.0600 27.1900 # C3
 171 1 3  0.0000 11.8700 17.5000 27.2000 # C3
 172 1 3  0.0000 10.7700 16.6100 27.2100 # C3
 173 1 3  0.0000  9.7000 14.0400 27.2200 # C3
 174 1 3  0.0000 10.0200 12.6600 27.2300 # C3
 175 1 3  0.0000 11.8900 10.5500 27.2300 # C3
 176 1 3  0.0000 13.1900  9.9800 27.2300 # C3
 177 1 3  0.0000 15.9600 10.3600 27.2300 # C3
 178 1 3  0.0000 17.0400 11.2900 27.2200 # C3
 179 1 3  0.0000 17.9100 13.9600 27.2100 # C3
 180 1 3  0.0000 17.6700 15.3500 27.2000 # C3
 181 1 3  0.0000 13.8900 18.1200 28.4200 # C3
 182 1 3  0.0000 12.5000 17.8400 28.4200 # C3
 183 1 3  0.0000 10.3100 16.0700 28.4300 # C3
 184 1 3  0.0000  9.7600 14.7600 28.4400 # C3
 185 1 3  0.0000 10.3600 12.0300 28.4600 # C3
 186 1 3  0.0000 11.3100 10.9700 28.4600 # C3
 187 1 3  0.0000 13.9000  9.8800 28.4600 # C3
 188 1 3  0.0000 15.3100 10.0700 28.4500 # C3
 189 1 3  0.0000 17.4300 11.9000 28.4400 # C3
 190 1 3  0.0000 17.8700 13.2500 28.4400 # C3
 191 1 3  0.0000 17.3700 16.0100 28.4300 # C3
 192 1 3  0.0000 16.5100 17.1300 28.4200 # C3
 193 1 3  0.0000 11.8500 17.5400 29.6500 # C3
 194 1 3  0.0000 10.7400 16.6600 29.6500 # C3
 195 1 3  0.0000  9.7100 14.0500 29.6700 # C3
 196 1 3  0.0000 10.0300 12.6700 29.6800 # C3
 197 1 3  0.0000 11.8900 10.5500 29.6800 # C3
 198 1 3  0.0000 13.1900  9.9900 29.6800 # C3
 199 1 3  0.0000 15.9600 10.3700 29.6700 # C3
 200 1 3  0.0000 17.0300 11.3000 29.6700 # C3
 201 1 3  0.0000 17.9200 13.9600 29.6600 # C3
 202 1 3  0.0000 17.6700 15.3600 29.6600 # C3
 203 1 3  0.0000 15.9400 17.5700 29.6500 # C3
 204 1 3  0.0000 14.6100 18.0700 29.6400 # C3
 205 1 3  0.0000 10.3000 16.1000 30.8800 # C3
 206 1 3  0.0000  9.7700 14.7800 30.8900 # C3
 207 1 3  0.0000 10.3900 12.0500 30.9000 # C3
 208 1 3  0.0000 11.3200 10.9900 30.9100 # C3
 209 1 3  0.0000 13.9100  9.8900 30.9100 # C3
 210 1 3  0.0000 15.3100 10.0700 30.9000 # C3
 211 1 3  0.0000 17.4300 11.9000 30.8900 # C3
 212 1 3  0.0000 17.8700 13.2500 30.8900 # C3
 213 1 3  0.0000 17.3700 16.0200 30.8800 # C3
 214 1 3  0.0000 16.5100 17.1500 30.8700 # C3
 215 1 3  0.0000 13.8900 18.1300 30.8700 # C3
 216 1 3  0.0000 12.5000 17.8500 30.8700 # C3
 217 1 3  0.0000  9.7200 14.0700 32.1200 # C3
 218 1 3  0.0000 10.0500 12.6900 32.1200 # C3
 219 1 3  0.0000 11.9000 10.5600 32.1300 # C3
 220 1 3  0.0000 13.2000  9.9900 32.1300 # C3
 221 1 3  0.0000 15.9700 10.3700 32.1200 # C3
 222 1 3  0.0000 17.0400 11.3000 32.1200 # C3
 223 1 3  0.0000 17.9200 13.9700 32.1100 # C3
 224 1 3  0.0000 17.6600 15.3700 32.1100 # C3
 225 1 3  0.0000 15.9300 17.5800 32.1000 # C3
 226 1 3  0.0000 14.6100 18.0800 32.0900 # C3
 227 1 3  0.0000 11.8500 17.5500 32.0900 # C3
 228 1 3  0.0000 10.7400 16.6800 32.1000 # C3
 229 1 3  0.0000 10.3800 12.0600 33.3500 # C3
 230 1 3  0.0000 11.3300 11.0000 33.3500 # C3
 231 1 3  0.0000 13.9100  9.8900 33.3600 # C3
 232 1 3  0.0000 15.3200 10.0700 33.3500 # C3
 233 1 3  0.0000 17.4200 11.9100 33.3400 # C3
 234 1 3  0.0000 17.8600 13.2600 33.3400 # C3
 235 1 3  0.0000 17.3600 16.0200 33.3300 # C3
 236 1 3  0.0000 16.5000 17.1600 33.3200 # C3
 237 1 3  0.0000 13.8900 18.1500 33.3200 # C3
 238 1 3  0.0000 12.5000 17.8600 33.3200 # C3
 239 1 3  0.0000 10.3000 16.1100 33.3300 # C3
 240 1 3  0.0000  9.7800 14.7900 33.3300 # C3
 241 1 3  0.0000 11.9200 10.6000 34.5800 # C3
 242 1 3  0.0000 13.2100 10.0100 34.5800 # C3
 243 1 3  0.0000 15.9800 10.3700 34.5700 # C3
 244 1 3  0.0000 17.0500 11.3000 34.5700 # C3
 245 1 3  0.0000 17.9100 13.9700 34.5600 # C3
 246 1 3  0.0000 17.6300 15.3700 34.5600 # C3
 247 1 3  0.0000 15.9300 17.6100 34.5400 # C3
 248 1 3  0.0000 14.6000 18.1000 34.5400 # C3
 249 1 3  0.0000 11.8400 17.5800 34.5400 # C3
 250 1 3  0.0000 10.7300 16.6900 34.5500 # C3
 251 1 3  0.0000  9.7400 14.0800 34.5600 # C3
 252 1 3  0.0000 10.0400 12.7000 34.5700 # C3
 253 1 3  0.0000 13.9200  9.9100 35.8100 # C3
 254 1 3  0.0000 15.3300 10.0800 35.8000 # C3
 255 1 3  0.0000 17.4500 11.9000 35.7900 # C3
 256 1 3  0.0000 17.8600 13.2600 35.7800 # C3
 257 1 3  0.0000 17.3000 16.0000 35.7800 # C3
 258 1 3  0.0000 16.5000 17.1700 35.7700 # C3
 259 1 3  0.0000 13.8800 18.1500 35.7700 # C3
 260 1 3  0.0000 12.4900 17.9000 35.7600 # C3
 261 1 3  0.0000 10.3000 16.1300 35.7700 # C3
 262 1 3  0.0000  9.7900 14.8100 35.7800 # C3
 263 1 3  0.0000 10.3700 12.0700 35.8000 # C3
 264 1 3  0.0000 11.3500 11.0400 35.8000 # C3
 265 1 3  0.0000 15.9900 10.3700 37.0200 # C3
 266 1 3  0.0000 17.0700 11.3000 37.0200 # C3
 267 1 3  0.0000 17.8900 13.9700 37.0100 # C3
 268 1 3  0.0000 17.5600 15.3500 37.0000 # C3
 269 1 3  0.0000 15.9300 17.6200 37.0000 # C3
 270 1 3  0.0000 14.5900 18.1000 36.9900 # C3
 271 1 3  0.0000 11.8300 17.6000 36.9900 # C3
 272 1 3  0.0000 10.7200 16.7200 36.9900 # C3
 273 1 3  0.0000  9.7300 14.1000 37.0100 # C3
 274 1 3  0.0000 10.0300 12.7100 37.0200 # C3
 275 1 3  0.0000 11.9200 10.6200 37.0300 # C3
 276 1 3  0.0000 13.2200 10.0300 37.0300 # C3
 277 1 3  0.0000 17.4700 11.9000 38.2400 # C3
 278 1 3  0.0000 17.8700 13.2600 38.2300 # C3
 279 1 3  0.0000 17.3100 16.0200 38.2200 # C3
 280 1 3  0.0000 16.4900 17.1800 38.2200 # C3
 281 1 3  0.0000 13.8700 18.1700 38.2200 # C3
 282 1 3  0.0000 12.4800 17.9200 38.2100 # C3
 283 1 3  0.0000 10.2900 16.1500 38.2200 # C3
 284 1 3  0.0000  9.7800 14.8200 38.2300 # C3
 285 1 3  0.0000 10.3700 12.0900 38.2400 # C3
 286 1 3  0.0000 11.3500 11.0500 38.2500 # C3
 287 1 3  0.0000 13.9300  9.9300 38.2600 # C3
 288 1 3  0.0000 15.3400 10.0900 38.2500 # C3
 289 1 3  0.0000 17.8900 13.9800 39.4500 # C3
 290 1 3  0.0000 17.6200 15.3800 39.4500 # C3
 291 1 3  0.0000 15.9200 17.6100 39.4500 # C3
 292 1 3  0.0000 14.5900 18.1100 39.4400 # C3
 293 1 3  0.0000 11.8200 17.6200 39.4400 # C3
 294 1 3  0.0000 10.7200 16.7300 39.4400 # C3
 295 1 3  0.0000  9.7300 14.1100 39.4500 # C3
 296 1 3  0.0000 10.0300 12.7300 39.4600 # C3
 297 1 3  0.0000 11.9400 10.6600 39.4800 # C3
 298 1 3  0.0000 13.2200 10.0600 39.4800 # C3
 299 1 3  0.0000 16.0000 10.3800 39.4800 # C3
 300 1 3  0.0000 17.0800 11.3000 39.4700 # C3
 301 1 3  0.0000 17.3600 16.0500 40.6700 # C3
 302 1 3  0.0000 16.4900 17.1800 40.6700 # C3
 303 1 3  0.0000 13.8700 18.1600 40.6700 # C3
 304 1 3  0.0000 12.4700 17.9300 40.6600 # C3
 305 1 3  0.0000 10.2800 16.1700 40.6700 # C3
 306 1 3  0.0000  9.7800 14.8400 40.6700 # C3
 307 1 3  0.0000 10.3700 12.1000 40.6900 # C3
 308 1 3  0.0000 11.3400 11.0700 40.7000 # C3
 309 1 3  0.0000 13.9300  9.9500 40.7100 # C3
 310 1 3  0.0000 15.3400 10.1100 40.7000 # C3
 311 1 3  0.0000 17.4800 11.9100 40.6900 # C3
 312 1 3  0.0000 17.8600 13.2800 40.6800 # C3
 313 1 3  0.0000 15.9100 17.6000 41.9000 # C3
 314 1 3  0.0000 14.5800 18.0900 41.8900 # C3
 315 1 3  0.0000 11.8100 17.6400 41.8900 # C3
 316 1 3  0.0000 10.7000 16.7600 41.8900 # C3
 317 1 3  0.0000  9.7200 14.1300 41.9000 # C3
 318 1 3  0.0000 10.0300 12.7400 41.9100 # C3
 319 1 3  0.0000 11.9200 10.6500 41.9300 # C3
 320 1 3  0.0000 13.2200 10.0900 41.9300 # C3
 321 1 3  0.0000 16.0000 10.4000 41.9300 # C3
 322 1 3  0.0000 17.0900 11.3100 41.9200 # C3
 323 1 3  0.0000 17.8700 14.0000 41.9000 # C3
 324 1 3  0.0000 17.6500 15.4000 41.9000 # C3
 325 1 3  0.0000 13.8600 18.1500 43.1200 # C3
 326 1 3  0.0000 12.4600 17.9300 43.1100 # C3
 327 1 3  0.0000 10.2600 16.1800 43.1100 # C3
 328 1 3  0.0000  9.7600 14.8600 43.1200 # C3
 329 1 3  0.0000 10.3700 12.1200 43.1400 # C3
 330 1 3  0.0000 11.3300 11.0700 43.1500 # C3
 331 1 3  0.0000 13.9300  9.9900 43.1600 # C3
 332 1 3  0.0000 15.3400 10.1400 43.1500 # C3
 333 1 3  0.0000 17.4900 11.9300 43.1400 # C3
 334 1 3  0.0000 17.8800 13.2900 43.1300 # C3
 335 1 3  0.0000 17.3800 16.0600 43.1200 # C3
 336 1 3  0.0000 16.4900 17.1700 43.1200 # C3
 337 1 3  0.0000 11.8000 17.6500 44.3400 # C3
 338 1 3  0.0000 10.6800 16.7700 44.3400 # C3
 339 1 3  0.0000  9.7000 14.1500 44.3400 # C3
 340 1 3  0.0000 10.0300 12.7600 44.3500 # C3
 341 1 3  0.0000 11.9200 10.6700 44.3700 # C3
 342 1 3  0.0000 13.2200 10.1200 44.3800 # C3
 343 1 3  0.0000 16.0000 10.4300 44.3800 # C3
 344 1 3  0.0000 17.0900 11.3400 44.3700 # C3
 345 1 3  0.0000 17.9300 14.0100 44.3500 # C3
 346 1 3  0.0000 17.6800 15.4100 44.3500 # C3
 347 1 3  0.0000 15.9100 17.5900 44.3400 # C3
 348 1 3  0.0000 14.5800 18.0700 44.3400 # C3
 349 1 3  0.0000 10.2500 16.1900 45.5600 # C3
 350 1 3  0.0000  9.7400 14.8700 45.5700 # C3
 351 1 3  0.0000 10.3800 12.1500 45.5800 # C3
 352 1 3  0.0000 11.3500 11.1200 45.5900 # C3
 353 1 3  0.0000 13.9300 10.0200 45.6000 # C3
 354 1 3  0.0000 15.3400 10.1700 45.6000 # C3
 355 1 3  0.0000 17.4900 11.9500 45.5900 # C3
 356 1 3  0.0000 17.9100 13.3100 45.5800 # C3
 357 1 3  0.0000 17.3900 16.0700 45.5700 # C3
 358 1 3  0.0000 16.5000 17.1700 45.5700 # C3
 359 1 3  0.0000 13.8600 18.1300 45.5600 # C3
 360 1 3  0.0000 12.4500 17.9300 45.5600 # C3
 361 1 3  0.0000  9.6900 14.1600 46.7900 # C3
 362 1 3  0.0000 10.0200 12.7800 46.8000 # C3
 363 1 3  0.0000 11.9200 10.7000 46.8200 # C3
 364 1 3  0.0000 13.2200 10.1300 46.8300 # C3
 365 1 3  0.0000 16.0000 10.4600 46.8200 # C3
 366 1 3  0.0000 17.1000 11.3600 46.8100 # C3
 367 1 3  0.0000 17.9600 14.0300 46.8000 # C3
 368 1 3  0.0000 17.6900 15.4200 46.8000 # C3
 369 1 3  0.0000 15.9100 17.5900 46.7900 # C3
 370 1 3  0.0000 14.5700 18.0500 46.7900 # C3
 371 1 3  0.0000 11.7900 17.6500 46.7800 # C3
 372 1 3  0.0000 10.6700 16.7800 46.7800 # C3
 373 1 3  0.0000 10.3500 12.1500 48.0300 # C3
 374 1 3  0.0000 11.3200 11.1100 48.0400 # C3
 375 1 3  0.0000 13.9300 10.0400 48.0500 # C3
 376 1 3  0.0000 15.3400 10.1900 48.0500 # C3
 377 1 3  0.0000 17.5000 11.9600 48.0300 # C3
 378 1 3  0.0000 17.9300 13.3200 48.0300 # C3
 379 1 3  0.0000 17.3800 16.0700 48.0300 # C3
 380 1 3  0.0000 16.5000 17.1800 48.0200 # C3
 381 1 3  0.0000 13.8600 18.1000 48.0100 # C3
 382 1 3  0.0000 12.4500 17.9300 48.0100 # C3
 383 1 3  0.0000 10.2400 16.2100 48.0100 # C3
 384 1 3  0.0000  9.7300 14.8800 48.0100 # C3
 385 1 3  0.0000 11.9100 10.7100 49.2700 # C3
 386 1 3  0.0000 13.2200 10.1600 49.2800 # C3
 387 1 3  0.0000 16.0000 10.4800 49.2700 # C3
 388 1 3  0.0000 17.1100 11.3700 49.2600 # C3
 389 1 3  0.0000 17.9700 14.0300 49.2600 # C3
 390 1 3  0.0000 17.6800 15.4200 49.2500 # C3
 391 1 3  0.0000 15.9100 17.6000 49.2400 # C3
 392 1 3  0.0000 14.5700 18.0700 49.2300 # C3
 393 1 3  0.0000 11.7900 17.6600 49.2300 # C3
 394 1 3  0.0000 10.6700 16.7800 49.2300 # C3
 395 1 3  0.0000  9.6700 14.1700 49.2400 # C3
 396 1 3  0.0000 10.0000 12.7900 49.2500 # C3
 397 1 3  0.0000 13.9300 10.0800 50.5000 # C3
 398 1 3  0.0000 15.3400 10.2100 50.4900 # C3
 399 1 3  0.0000 17.5200 11.9600 50.4800 # C3
 400 1 3  0.0000 17.9400 13.3200 50.4800 # C3
 401 1 3  0.0000 17.3600 16.0700 50.4800 # C3
 402 1 3  0.0000 16.4800 17.1800 50.4700 # C3
 403 1 3  0.0000 13.8500 18.1700 50.4500 # C3
 404 1 3  0.0000 12.4500 17.9400 50.4500 # C3
 405 1 3  0.0000 10.2400 16.2100 50.4600 # C3
 406 1 3  0.0000  9.7100 14.8900 50.4600 # C3
 407 1 3  0.0000 10.3600 12.1700 50.4800 # C3
 408 1 3  0.0000 11.3200 11.1400 50.4900 # C3
 409 1 3  0.0000 16.0100 10.4800 51.7100 # C3
 410 1 3  0.0000 17.1300 11.3600 51.7000 # C3
 411 1 3  0.0000 17.9600 14.0300 51.7100 # C3
 412 1 3  0.0000 17.6500 15.4200 51.7100 # C3
 413 1 3  0.0000 15.8900 17.6200 51.6900 # C3
 414 1 3  0.0000 14.5600 18.1200 51.6800 # C3
 415 1 3  0.0000 11.8000 17.6500 51.6700 # C3
 416 1 3  0.0000 10.7000 16.7600 51.6800 # C3
 417 1 3  0.0000  9.6600 14.1800 51.6900 # C3
 418 1 3  0.0000  9.9900 12.8000 51.7000 # C3
 419 1 3  0.0000 11.9100 10.7400 51.7200 # C3
 420 1 3  0.0000 13.2200 10.2000 51.7300 # C3
 421 1 3  0.0000 17.5500 11.9400 52.9200 # C3
 422 1 3  0.0000 17.9300 13.3100 52.9300 # C3
 423 1 3  0.0000 17.3100 16.0600 52.9300 # C3
 424 1 3  0.0000 16.4600 17.2000 52.9200 # C3
 425 1 3  0.0000 13.8400 18.2000 52.9000 # C3
 426 1 3  0.0000 12.4500 17.9600 52.9000 # C3
 427 1 3  0.0000 10.2400 16.2200 52.9000 # C3
 428 1 3  0.0000  9.7100 14.9000 52.9100 # C3
 429 1 3  0.0000 10.3200 12.1700 52.9300 # C3
 430 1 3  0.0000 11.3200 11.1700 52.9400 # C3
 431 1 3  0.0000 13.9300 10.1300 52.9500 # C3
 432 1 3  0.0000 15.3500 10.2300 52.9400 # C3
 433 1 3  0.0000 17.8900 14.0200 54.1600 # C3
 434 1 3  0.0000 17.5500 15.4000 54.1600 # C3
 435 1 3  0.0000 15.8900 17.6500 54.1300 # C3
 436 1 3  0.0000 14.5500 18.1300 54.1300 # C3
 437 1 3  0.0000 11.7800 17.6800 54.1200 # C3
 438 1 3  0.0000 10.6600 16.8100 54.1200 # C3
 439 1 3  0.0000  9.6800 14.1900 54.1400 # C3
 440 1 3  0.0000  9.9600 12.8000 54.1500 # C3
 441 1 3  0.0000 11.9100 10.7800 54.1700 # C3
 442 1 3  0.0000 13.2300 10.2700 54.1800 # C3
 443 1 3  0.0000 16.0400 10.4700 54.1500 # C3
 444 1 3  0.0000 17.1700 11.3200 54.1400 # C3
 445 1 3  0.0000 17.2000 16.0200 55.3800 # C3
 446 1 3  0.0000 16.4400 17.2200 55.3700 # C3
 447 1 3  0.0000 13.8300 18.2000 55.3500 # C3
 448 1 3  0.0000 12.4300 17.9900 55.3500 # C3
 449 1 3  0.0000 10.2300 16.2400 55.3500 # C3
 450 1 3  0.0000  9.7300 14.9200 55.3600 # C3
 451 1 3  0.0000 10.2900 12.1800 55.3800 # C3
 452 1 3  0.0000 11.3100 11.1900 55.4000 # C3
 453 1 3  0.0000 13.9500 10.2200 55.4000 # C3
 454 1 3  0.0000 15.3700 10.2600 55.3800 # C3
 455 1 3  0.0000 17.5700 11.9100 55.3700 # C3
 456 1 3  0.0000 17.8400 13.3100 55.3900 # C3
 457 1 3  0.0000 15.8800 17.6800 56.5800 # C3
 458 1 3  0.0000 14.5400 18.1600 56.5800 # C3
 459 1 3  0.0000 11.7600 17.7100 56.5700 # C3
 460 1 3  0.0000 10.6500 16.8300 56.5700 # C3
 461 1 3  0.0000  9.6500 14.2100 56.5800 # C3
 462 1 3  0.0000  9.9200 12.8200 56.5900 # C3
 463 1 3  0.0000 11.9300 10.8400 56.6300 # C3
 464 1 3  0.0000 13.2500 10.3400 56.6300 # C3
 465 1 3  0.0000 16.0700 10.4400 56.6000 # C3
 466 1 3  0.0000 17.2300 11.2700 56.5800 # C3
 467 1 3  0.0000 17.8100 14.0100 56.6200 # C3
 468 1 3  0.0000 17.5300 15.4000 56.6100 # C3
 469 1 2  0.0000 13.8200 18.2400 57.8000 # C2
 470 1 2  0.0000 12.4200 18.0200 57.7900 # C2
 471 1 2  0.0000 10.2100 16.2600 57.8000 # C2
 472 1 2  0.0000  9.6900 14.9400 57.8000 # C2
 473 1 2  0.0000 10.2600 12.1900 57.8200 # C2
 474 1 2  0.0000 11.3400 11.2700 57.8500 # C2
 475 1 2  0.0000 13.9700 10.2500 57.8500 # C2
 476 1 2  0.0000 15.3900 10.2100 57.8200 # C2
 477 1 2  0.0000 17.6500 11.8800 57.7900 # C2
 478 1 2  0.0000 17.7400 13.2900 57.8400 # C2
 479 1 2  0.0000 17.2500 16.0800 57.8300 # C2
 480 1 2  0.0000 16.4600 17.2600 57.8100 # C2
 481 2 4 -0.8476  5.8700 13.5100 11.5500 # opls_116
 482 2 5  0.4238  5.0200 13.7100 11.0700 # opls_117
 483 2 5  0.4238  6.2600 14.3700 11.9000 # opls_117
 484 3 4 -0.8476 15.2100 14.1400  6.6400 # opls_116
 485 3 5  0.4238 14.4000 13.7900  7.1200 # opls_117
 486 3 5  0.4238 14.9300 14.8300  5.9800 # opls_117
 487 4 4 -0.8476 17.7500  5.3100  8.5400 # opls_116
 488 4 5  0.4238 18.2000  6.1000  8.1200 # opls_117
 489 4 5  0.4238 17.9300  5.3000  9.5200 # opls_117
 490 5 4 -0.8476 11.4500  7.0600  6.9600 # opls_116
 491 5 5  0.4238 11.9500  7.8600  6.6400 # opls_117
 492 5 5  0.4238 10.9600  7.2800  7.8000 # opls_117
 493 6 4 -0.8476 17.2900  6.4700  1.8800 # opls_116
 494 6 5  0.4238 17.0600  6.3500  0.9200 # opls_117
 495 6 5  0.4238 16.9200  5.7000  2.4100 # opls_117
 496 7 4 -0.8476  6.7100 11.3400  9.9200 # opls_116
 497 7 5  0.4238  6.5500 12.0600 10.5900 # opls_117
 498 7 5  0.4238  6.2600 11.5700  9.0600 # opls_117
 499 8 4 -0.8476  8.6400  6.8100 18.6200 # opls_116
 500 8 5  0.4238  8.7300  7.3800 19.4300 # opls_117
 501 8 5  0.4238  8.8600  7.3500 17.8100 # opls_117
 502 9 4 -0.8476  6.8200  9.9000  6.6100 # opls_116
 503 9 5  0.4238  7.6500  9.8400  7.1700 # opls_117
 504 9 5  0.4238  6.2700 10.6700  6.9200 # opls_117
 505 10 4 -0.8476  5.6200 12.3600 18.7100 # opls_116
 506 10 5  0.4238  6.4400 12.8700 18.4500 # opls_117
 507 10 5  0.4238  4.9400 12.4300 17.9800 # opls_117
 508 11 4 -0.8476  3.5500 14.3900 10.4100 # opls_116
 509 11 5  0.4238  2.7200 13.9300 10.1000 # opls_117
 510 11 5  0.4238  3.9200 14.9400  9.6500 # opls_117
 511 12 4 -0.8476 14.4000 13.6100 12.7600 # opls_116
 512 12 5  0.4238 15.3500 13.9200 12.8500 # opls_117
 513 12 5  0.4238 14.2700 12.8000 13.3300 # opls_117
 514 13 4 -0.8476  4.7500  3.1600 14.3800 # opls_116
 515 13 5  0.4238  5.5600  2.6500 14.6800 # opls_117
 516 13 5  0.4238  3.9300  2.6100 14.5400 # opls_117
 517 14 4 -0.8476 15.8400  3.9400  7.2400 # opls_116
 518 14 5  0.4238 14.9300  4.3200  7.0700 # opls_117
 519 14 5  0.4238 16.3900  4.5900  7.7600 # opls_117
 520 15 4 -0.8476  3.1500 16.9400  4.8900 # opls_116
 521 15 5  0.4238  3.0200 17.7500  5.4700 # opls_117
 522 15 5  0.4238  4.0900 16.9300  4.5400 # opls_117
 523 16 4 -0.8476  2.4700 14.8500  3.3600 # opls_116
 524 16 5  0.4238  2.6700 15.6400  3.9400 # opls_117
 525 16 5  0.4238  2.0600 14.1300  3.9200 # opls_117
 526 17 4 -0.8476  3.1200 11.4900  9.0400 # opls_116
 527 17 5  0.4238  2.9300 10.5100  9.1000 # opls_117
 528 17 5  0.4238  2.3400 12.0000  9.4000 # opls_117
 529 18 4 -0.8476  5.6500 17.9000 14.5800 # opls_116
 530 18 5  0.4238  4.7800 17.6700 15.0300 # opls_117
 531 18 5  0.4238  5.8300 18.8800 14.6900 # opls_117
 532 19 4 -0.8476  6.0200  9.7100  2.3000 # opls_116
 533 19 5  0.4238  5.8100 10.4300  1.6400 # opls_117
 534 19 5  0.4238  6.7400 10.0200  2.9100 # opls_117
 535 20 4 -0.8476 15.6700  4.0100 13.7900 # opls_116
 536 20 5  0.4238 16.6600  3.9100 13.8900 # opls_117
 537 20 5  0.4238 15.2200  3.4200 14.4600 # opls_117
 538 21 4 -0.8476  0.7800  7.3000  5.7100 # opls_116
 539 21 5  0.4238  0.4100  6.4100  5.9700 # opls_117
 540 21 5  0.4238  0.5200  7.9800  6.4000 # opls_117
 541 22 4 -0.8476 18.6500 17.2400  3.1800 # opls_116
 542 22 5  0.4238 19.3300 16.8900  3.8200 # opls_117
 543 22 5  0.4238 18.9600 18.1300  2.8300 # opls_117
 544 23 4 -0.8476  1.1700 16.1200  1.3500 # opls_116
 545 23 5  0.4238  1.6800 15.6400  2.0700 # opls_117
 546 23 5  0.4238  0.3800 16.5800  1.7600 # opls_117
 547 24 4 -0.8476 17.3600  8.9800  6.1500 # opls_116
 548 24 5  0.4238 17.6600  8.4800  5.3400 # opls_117
 549 24 5  0.4238 17.0900  9.9100  5.8900 # opls_117
 550 25 4 -0.8476 16.9300 11.3900  4.6900 # opls_116
 551 25 5  0.4238 17.7600 11.0500  4.2500 # opls_117
 552 25 5  0.4238 17.1400 12.2400  5.1800 # opls_117
 553 26 4 -0.8476  1.7200  7.1900 15.2300 # opls_116
 554 26 5  0.4238  2.6300  7.2900 15.6400 # opls_117
 555 26 5  0.4238  1.7300  7.5400 14.3000 # opls_117
 556 27 4 -0.8476  6.4400 14.6000  7.0400 # opls_116
 557 27 5  0.4238  6.3000 13.6900  7.4400 # opls_117
 558 27 5  0.4238  6.3400 14.5400  6.0500 # opls_117
 559 28 4 -0.8476  7.9300 -0.0100  4.0800 # opls_116
 560 28 5  0.4238  8.6300  0.6200  4.4100 # opls_117
 561 28 5  0.4238  7.0400  0.2700  4.4400 # opls_117
 562 29 4 -0.8476 15.7300 10.3500  2.3800 # opls_116
 563 29 5  0.4238 15.1000  9.5900  2.5400 # opls_117
 564 29 5  0.4238 16.0300 10.7200  3.2700 # opls_117
 565 30 4 -0.8476  2.7900  2.3800 17.2300 # opls_116
 566 30 5  0.4238  3.3400  3.2100 17.3300 # opls_117
 567 30 5  0.4238  1.8700  2.5400 17.5800 # opls_117
 568 31 4 -0.8476 12.7300 13.5300  7.7600 # opls_116
 569 31 5  0.4238 12.8800 13.5900  8.7400 # opls_117
 570 31 5  0.4238 12.1900 12.7200  7.5500 # opls_117
 571 32 4 -0.8476 16.3800 19.2400  5.1300 # opls_116
 572 32 5  0.4238 16.2200 18.5100  4.4700 # opls_117
 573 32 5  0.4238 16.4000 18.8600  6.0600 # opls_117
 574 33 4 -0.8476  5.5800  7.2000  3.3800 # opls_116
 575 33 5  0.4238  5.8500  8.1200  3.0800 # opls_117
 576 33 5  0.4238  4.8800  7.2800  4.0900 # opls_117
 577 34 4 -0.8476 12.2100  3.2100  9.2500 # opls_116
 578 34 5  0.4238 11.2400  2.9800  9.3500 # opls_117
 579 34 5  0.4238 12.7500  2.6400  9.8700 # opls_117
 580 35 4 -0.8476 15.9100 17.3500  3.2200 # opls_116
 581 35 5  0.4238 16.8900 17.2000  3.1400 # opls_117
 582 35 5  0.4238 15.5100 17.4100  2.3100 # opls_117
 583 36 4 -0.8476  7.8900  5.2600 14.8400 # opls_116
 584 36 5  0.4238  7.4700  4.9800 15.7100 # opls_117
 585 36 5  0.4238  7.4900  4.7300 14.0900 # opls_117
 586 37 4 -0.8476 13.6700  4.4400 17.3000 # opls_116
 587 37 5  0.4238 13.7900  4.5300 18.2900 # opls_117
 588 37 5  0.4238 14.1800  3.6500 16.9700 # opls_117
 589 38 4 -0.8476  9.2900  8.1700 16.3200 # opls_116
 590 38 5  0.4238  9.7900  7.5600 15.7100 # opls_117
 591 38 5  0.4238  8.8500  8.8900 15.7800 # opls_117
 592 39 4 -0.8476  9.6900  3.7800 12.0900 # opls_116
 593 39 5  0.4238  8.7400  3.9200 12.3700 # opls_117
 594 39 5  0.4238  9.7100  3.3100 11.2000 # opls_117
 595 40 4 -0.8476 10.2900  6.5600  4.4600 # opls_116
 596 40 5  0.4238 10.6200  6.6600  5.4000 # opls_117
 597 40 5  0.4238  9.3600  6.1900  4.4700 # opls_117
 598 41 4 -0.8476  0.2900  9.0100  7.7500 # opls_116
 599 41 5  0.4238  1.1900  9.0400  8.1700 # opls_117
 600 41 5  0.4238 -0.3900  9.3700  8.3800 # opls_117
 601 42 4 -0.8476  0.9600 18.4900 15.3700 # opls_116
 602 42 5  0.4238  0.5300 17.5900 15.4900 # opls_117
 603 42 5  0.4238  0.4000 19.0400 14.7500 # opls_117
 604 43 4 -0.8476  8.2900  3.1000  2.6500 # opls_116
 605 43 5  0.4238  8.7800  3.6100  1.9400 # opls_117
 606 43 5  0.4238  7.6900  2.4300  2.2200 # opls_117
 607 44 4 -0.8476 17.2700  5.8600 17.9000 # opls_116