#Lammps data file. Geometry for PEG

 34013 atoms
 23038 bonds
 13111 angles
 554 dihedrals

 13 atom types
 14 bond types
 28 angle types
 78 dihedral types


 0.0000 70.0000 xlo xhi
 0.0000 70.0000 ylo yhi
 0.0000 70.0000 zlo zhi

 Masses

 1 28.0860
 2 15.9994
 3 15.9994
 4 1.00800
 5 15.9994
 6 1.00800
 7 55.8470
 8 55.8470
 9 55.8470
 10 55.8470
 11 15.9994
 12 15.9994
 13 15.9994

 Pair Coeffs

 1 0.154968944099 3.154
 2 0.127472527473 3.795
 3 0.127472527473 3.795
 4 0.0 0.0
 5 0.155327281414 3.166
 6 0.0 0.0
 7 5.95876731964 4.3
 8 5.95876731964 4.3
 9 5.95876731964 4.3
 10 5.95876731964 4.3
 11 0.127472527473 3.795
 12 0.127472527473 3.795
 13 0.127472527473 3.795

 Bond Coeffs

 1 477.7831 1.6100
 2 477.7831 1.6100
 3 477.7831 0.9600
 4 412.285 1.000
 5 477.7831 1.8870
 6 477.7831 2.0580
 7 477.7831 1.8870
 8 477.7831 2.0580
 9 477.7831 1.8870
 10 477.7831 2.0580
 11 477.7831 1.8870
 12 477.7831 2.0580
 13 477.7831 0.9600
 14 477.7831 0.9600

 Angle Coeffs

 1 47.7783 109.8000
 2 47.7783 109.8000
 3 47.7783 109.8000
 4 47.7783 143.6000
 5 47.7783 128.8000
 6 47.7783 109.8000
 7 45.770 109.4700
 8 47.7783 109.4710
 9 47.7783 180.0000
 10 47.7783 109.4710
 11 47.7783 180.0000
 12 47.7783 109.4710
 13 47.7783 180.0000
 14 47.7783 109.4710
 15 47.7783 180.0000
 16 47.7783 109.4710
 17 47.7783 180.0000
 18 47.7783 109.4710
 19 47.7783 180.0000
 20 47.7783 123.6650
 21 47.7783 123.6650
 22 47.7783 123.6650
 23 47.7783 123.6650
 24 47.7783 92.2390
 25 47.7783 92.2390
 26 47.7783 92.2390
 27 47.7783 128.8000
 28 47.7783 128.8000

 Dihedral Coeffs

 1 0.0000 5 0 0.0
 2 0.0000 5 0 0.0
 3 0.0000 5 0 0.0
 4 0.0000 5 0 0.0
 5 0.0000 3 0 0.0
 6 0.0000 3 0 0.0
 7 0.0000 3 0 0.0
 8 0.0000 3 0 0.0
 9 0.0000 3 0 0.0
 10 0.0000 3 0 0.0
 11 0.0000 3 0 0.0
 12 0.0000 3 0 0.0
 13 0.0000 3 0 0.0
 14 0.0000 3 0 0.0
 15 0.0000 3 0 0.0
 16 0.0000 3 0 0.0
 17 0.0000 3 0 0.0
 18 0.0000 3 0 0.0
 19 0.0000 3 0 0.0
 20 0.0000 3 0 0.0
 21 0.0000 3 0 0.0
 22 0.0000 3 0 0.0
 23 0.0000 3 0 0.0
 24 0.0000 3 0 0.0
 25 0.0000 3 0 0.0
 26 0.0000 3 0 0.0
 27 0.0000 3 0 0.0
 28 0.0000 3 0 0.0
 29 0.0000 3 0 0.0
 30 0.0000 3 0 0.0
 31 0.0000 3 0 0.0
 32 0.0000 3 0 0.0
 33 0.0000 3 0 0.0
 34 0.0000 3 0 0.0
 35 0.0000 3 0 0.0
 36 0.0000 3 0 0.0
 37 0.0000 3 0 0.0
 38 0.0000 3 0 0.0
 39 0.0000 3 0 0.0
 40 0.0000 3 0 0.0
 41 0.0000 3 0 0.0
 42 0.0000 3 0 0.0
 43 0.0000 3 0 0.0
 44 0.0000 3 0 0.0
 45 0.0000 3 0 0.0
 46 0.0000 3 0 0.0
 47 0.0000 3 0 0.0
 48 0.0000 3 0 0.0
 49 0.0000 3 0 0.0
 50 0.0000 3 0 0.0
 51 0.0000 3 0 0.0
 52 0.0000 3 0 0.0
 53 0.0000 3 0 0.0
 54 0.0000 3 0 0.0
 55 0.0000 3 0 0.0
 56 0.0000 3 0 0.0
 57 0.0000 3 0 0.0
 58 0.0000 3 0 0.0
 59 0.0000 3 0 0.0
 60 0.0000 3 0 0.0
 61 0.0000 3 0 0.0
 62 0.0000 3 0 0.0
 63 0.0000 3 0 0.0
 64 0.0000 3 0 0.0
 65 0.0000 3 0 0.0
 66 0.0000 3 0 0.0
 67 0.0000 3 0 0.0
 68 0.0000 3 0 0.0
 69 0.0000 3 0 0.0
 70 0.0000 3 0 0.0
 71 0.0000 3 0 0.0
 72 0.0000 3 0 0.0
 73 0.0000 3 0 0.0
 74 0.0000 3 0 0.0
 75 0.0000 3 0 0.0
 76 0.0000 3 0 0.0
 77 0.0000 3 0 0.0
 78 0.0000 3 0 0.0

 Atoms

 1 1 8  0.0000 34.9600 34.9200 35.0800 # Fe3
 2 1 8  0.0000 35.0400 34.9000 41.1700 # Fe3
 3 1 8  0.0000 33.0100 39.9000 38.0200 # Fe3
 4 1 8  0.0000 29.6500 34.6400 38.0300 # Fe3
 5 1 8  0.0000 34.9900 34.8900 32.0100 # Fe3
 6 1 8  0.0000 34.9200 34.9500 38.1500 # Fe3
 7 1 8  0.0000 33.0000 39.9000 35.0900 # Fe3
 8 1 8  0.0000 29.6200 34.6400 35.1000 # Fe3
 9 1 8  0.0000 37.6100 35.0000 33.5400 # Fe3
 10 1 8  0.0000 37.5900 35.0100 39.7500 # Fe3
 11 1 8  0.0000 35.5500 40.0200 36.5800 # Fe3
 12 1 8  0.0000 32.3100 34.8200 36.6400 # Fe3
 13 1 8  0.0000 35.9900 32.5400 39.7500 # Fe3
 14 1 8  0.0000 35.9700 32.4900 33.5500 # Fe3
 15 1 8  0.0000 30.5900 32.2700 36.5900 # Fe3
 16 1 8  0.0000 33.9700 37.3800 36.6300 # Fe3
 17 1 8  0.0000 40.0400 35.1900 38.0700 # Fe3
 18 1 8  0.0000 36.8800 30.2100 38.0600 # Fe3
 19 1 8  0.0000 40.2900 35.2100 35.0600 # Fe3
 20 1 8  0.0000 36.9200 29.9500 35.0700 # Fe3
 21 1 8  0.0000 31.7900 29.9700 35.0600 # Fe3
 22 1 8  0.0000 29.8700 34.7000 32.1300 # Fe3
 23 1 8  0.0000 34.3700 29.8200 33.5700 # Fe3
 24 1 8  0.0000 32.3400 34.8400 30.4100 # Fe3
 25 1 8  0.0000 36.9000 29.9400 32.1600 # Fe3
 26 1 8  0.0000 38.1500 39.8700 35.0600 # Fe3
 27 1 8  0.0000 33.0800 39.6200 32.1100 # Fe3
 28 1 8  0.0000 39.3600 37.5900 33.5600 # Fe3
 29 1 8  0.0000 33.9600 37.3200 30.4000 # Fe3
 30 1 8  0.0000 40.3000 35.2200 32.1400 # Fe3
 31 1 8  0.0000 34.8700 34.9800 29.0000 # Fe3
 32 1 11  0.0000 33.2800 35.9600 43.9900 # OFe
 33 1 11  0.0000 34.0600 33.5500 42.5400 # OFe
 34 1 11  0.0000 33.2700 36.0100 41.1500 # OFe
 35 1 11  0.0000 35.8200 36.3400 42.5600 # OFe
 36 1 11  0.0000 27.9800 35.7200 40.8700 # OFe
 37 1 11  0.0000 29.0400 33.3100 39.6100 # OFe
 38 1 11  0.0000 27.9600 35.9900 37.9600 # OFe
 39 1 11  0.0000 30.4600 35.8800 39.5100 # OFe
 40 1 11  0.0000 29.7400 30.9400 38.0800 # OFe
 41 1 11  0.0000 35.2200 31.1900 41.2800 # OFe
 42 1 11  0.0000 36.0800 29.1100 39.5900 # OFe
 43 1 11  0.0000 30.9500 28.8300 36.5500 # OFe
 44 1 11  0.0000 33.4900 29.0600 38.1400 # OFe
 45 1 11  0.0000 31.4700 33.6000 41.1800 # OFe
 46 1 11  0.0000 29.9100 30.9900 35.0200 # OFe
 47 1 11  0.0000 35.1600 31.3700 38.2300 # OFe
 48 1 11  0.0000 32.3900 31.2100 36.6000 # OFe
 49 1 11  0.0000 37.7800 31.3700 39.6300 # OFe
 50 1 11  0.0000 30.6100 35.8400 42.4800 # OFe
 51 1 11  0.0000 32.4900 31.0900 39.6200 # OFe
 52 1 11  0.0000 37.1000 26.2600 35.3300 # OFe
 53 1 11  0.0000 37.8500 31.2000 42.6700 # OFe
 54 1 11  0.0000 34.3000 26.1200 33.6900 # OFe
 55 1 11  0.0000 27.2700 30.6900 36.5100 # OFe
 56 1 11  0.0000 31.3300 40.9500 40.8900 # OFe
 57 1 11  0.0000 32.2400 38.6400 39.5000 # OFe
 58 1 11  0.0000 31.0700 40.8400 37.9600 # OFe
 59 1 11  0.0000 33.9600 40.9800 39.6300 # OFe
 60 1 11  0.0000 36.4200 41.3300 38.0800 # OFe
 61 1 11  0.0000 38.4700 36.2800 41.3100 # OFe
 62 1 11  0.0000 37.4100 38.7900 39.6200 # OFe
 63 1 11  0.0000 32.2900 38.4900 42.4900 # OFe
 64 1 11  0.0000 39.4000 33.8900 39.6300 # OFe
 65 1 11  0.0000 37.2600 38.8100 36.6000 # OFe
 66 1 11  0.0000 39.7300 38.7700 38.1800 # OFe
 67 1 11  0.0000 34.6800 38.6100 41.1700 # OFe
 68 1 11  0.0000 36.4300 41.1600 35.0100 # OFe
 69 1 11  0.0000 38.2900 36.2600 38.2400 # OFe
 70 1 11  0.0000 38.8400 41.1100 36.5400 # OFe
 71 1 11  0.0000 40.7400 36.3800 39.5700 # OFe
 72 1 11  0.0000 39.5800 33.9300 42.6700 # OFe
 73 1 11  0.0000 43.7800 36.5400 35.3300 # OFe
 74 1 11  0.0000 27.7600 35.7500 35.0700 # OFe
 75 1 11  0.0000 31.1800 41.0900 35.0400 # OFe
 76 1 11  0.0000 29.5500 38.4000 35.0200 # OFe
 77 1 11  0.0000 29.6200 38.3600 40.9100 # OFe
 78 1 11  0.0000 32.2400 38.5600 33.6700 # OFe
 79 1 11  0.0000 28.9000 33.4000 33.5300 # OFe
 80 1 11  0.0000 29.6600 38.2800 32.3200 # OFe
 81 1 11  0.0000 29.5900 38.4000 38.2000 # OFe
 82 1 11  0.0000 28.1000 35.7600 32.2200 # OFe
 83 1 11  0.0000 31.3600 40.7100 32.1600 # OFe
 84 1 11  0.0000 30.5100 35.8900 33.6900 # OFe
 85 1 11  0.0000 33.8500 41.0300 33.5100 # OFe
 86 1 11  0.0000 33.1300 36.1200 38.1300 # OFe
 87 1 11  0.0000 33.2200 36.0500 31.9100 # OFe
 88 1 11  0.0000 35.1800 31.1300 34.9900 # OFe
 89 1 11  0.0000 38.5000 36.2900 34.9700 # OFe
 90 1 11  0.0000 36.7400 33.7900 35.0200 # OFe
 91 1 11  0.0000 36.8300 33.7600 41.2600 # OFe
 92 1 11  0.0000 34.7400 38.7300 38.0300 # OFe
 93 1 11  0.0000 31.4200 33.5300 38.0500 # OFe
 94 1 11  0.0000 34.2200 33.6700 33.5500 # OFe
 95 1 11  0.0000 34.2200 33.6800 39.6800 # OFe
 96 1 11  0.0000 32.2400 38.6000 36.5700 # OFe
 97 1 11  0.0000 28.7800 33.3600 36.5500 # OFe
 98 1 11  0.0000 39.4400 33.9700 33.5900 # OFe
 99 1 11  0.0000 36.1100 28.6300 33.6300 # OFe
 100 1 11  0.0000 34.1200 33.7200 30.4800 # OFe
 101 1 11  0.0000 34.1300 33.7300 36.6100 # OFe
 102 1 11  0.0000 36.8000 33.7500 32.0200 # OFe
 103 1 11  0.0000 36.7200 33.8300 38.2600 # OFe
 104 1 11  0.0000 34.7300 38.7000 35.1500 # OFe
 105 1 11  0.0000 31.4300 33.5700 35.1600 # OFe
 106 1 11  0.0000 33.1900 36.0600 35.1600 # OFe
 107 1 11  0.0000 33.0800 36.1200 28.9000 # OFe
 108 1 11  0.0000 35.1700 31.1400 32.1300 # OFe
 109 1 11  0.0000 38.5000 36.3000 32.1200 # OFe
 110 1 11  0.0000 35.7000 36.1700 36.6000 # OFe
 111 1 11  0.0000 35.7100 36.1600 30.5000 # OFe
 112 1 11  0.0000 37.6800 31.2500 33.6000 # OFe
 113 1 11  0.0000 41.1700 36.4900 33.6100 # OFe
 114 1 11  0.0000 30.5000 35.8700 36.5700 # OFe
 115 1 11  0.0000 33.8200 41.2100 36.5400 # OFe
 116 1 11  0.0000 35.8100 36.1300 39.6600 # OFe
 117 1 11  0.0000 35.8000 36.1000 33.5500 # OFe
 118 1 11  0.0000 40.2600 31.5300 37.8800 # OFe
 119 1 11  0.0000 40.3800 31.4500 32.0000 # OFe
 120 1 11  0.0000 41.7800 34.1000 37.9900 # OFe
 121 1 11  0.0000 38.5800 29.0800 37.9400 # OFe
 122 1 11  0.0000 39.4100 33.9900 36.5100 # OFe
 123 1 11  0.0000 36.0600 28.8100 36.6600 # OFe
 124 1 11  0.0000 42.1500 34.0800 35.1200 # OFe
 125 1 11  0.0000 38.7200 28.7500 35.1300 # OFe
 126 1 11  0.0000 40.3800 31.4800 35.1500 # OFe
 127 1 11  0.0000 40.3000 31.4700 29.2600 # OFe
 128 1 11  0.0000 37.6700 31.2800 36.5000 # OFe
 129 1 11  0.0000 40.9700 36.4800 36.6400 # OFe
 130 1 11  0.0000 26.1800 33.2600 34.8700 # OFe
 131 1 11  0.0000 30.3600 35.9600 27.5300 # OFe
 132 1 11  0.0000 30.1900 31.0600 32.0000 # OFe
 133 1 11  0.0000 35.2600 31.2000 28.9800 # OFe
 134 1 11  0.0000 33.4800 28.6700 35.1200 # OFe
 135 1 11  0.0000 31.6100 33.6100 31.9400 # OFe
 136 1 11  0.0000 31.1000 28.7400 33.5600 # OFe
 137 1 11  0.0000 29.2000 33.5000 30.6300 # OFe
 138 1 11  0.0000 33.5100 28.5000 32.0700 # OFe
 139 1 11  0.0000 31.4500 33.5800 28.8900 # OFe
 140 1 11  0.0000 32.5100 31.0700 30.5100 # OFe
 141 1 11  0.0000 37.6200 31.3600 27.6900 # OFe
 142 1 11  0.0000 30.5500 35.9700 30.5400 # OFe
 143 1 11  0.0000 32.6700 31.0300 33.5400 # OFe
 144 1 11  0.0000 38.8300 28.9900 32.2300 # OFe
 145 1 11  0.0000 35.9600 28.8500 30.5500 # OFe
 146 1 11  0.0000 38.6000 28.8700 29.3700 # OFe
 147 1 11  0.0000 37.6900 31.2000 30.6800 # OFe
 148 1 11  0.0000 35.6200 43.6700 36.4500 # OFe
 149 1 11  0.0000 42.7100 39.1600 33.7100 # OFe
 150 1 11  0.0000 32.8100 43.5100 34.8100 # OFe
 151 1 11  0.0000 32.0600 38.6800 27.5200 # OFe
 152 1 11  0.0000 36.4900 40.8300 31.9800 # OFe
 153 1 11  0.0000 38.4500 36.2000 28.9700 # OFe
 154 1 11  0.0000 40.0400 38.8800 35.1100 # OFe
 155 1 11  0.0000 34.8000 38.4800 31.9300 # OFe
 156 1 11  0.0000 37.5400 38.6200 33.5400 # OFe
 157 1 11  0.0000 32.1800 38.5000 30.5300 # OFe
 158 1 11  0.0000 39.3000 33.9600 27.6700 # OFe
 159 1 11  0.0000 37.4700 38.7500 30.5400 # OFe
 160 1 11  0.0000 40.2200 38.9100 32.0700 # OFe
 161 1 11  0.0000 34.7400 38.6500 28.8700 # OFe
 162 1 11  0.0000 33.8900 40.7500 30.5900 # OFe
 163 1 11  0.0000 39.0200 41.0100 33.6100 # OFe
 164 1 11  0.0000 41.9600 33.8600 32.2000 # OFe
 165 1 11  0.0000 39.4700 33.9800 30.6600 # OFe
 166 1 11  0.0000 41.9400 34.0900 29.2700 # OFe
 167 1 11  0.0000 40.8900 36.5100 30.5300 # OFe
 168 1 11  0.0000 36.6300 33.8300 29.0300 # OFe
 169 1 11  0.0000 34.0800 33.5300 27.6100 # OFe
 170 1 11  0.0000 36.5400 33.8900 26.1700 # OFe
 171 1 11  0.0000 35.8600 36.2600 27.5800 # OFe
 172 1 7  0.0000 32.4000 32.9700 39.6600 # Fe2
 173 1 7  0.0000 35.6700 38.0900 39.6500 # Fe2
 174 1 7  0.0000 30.4300 37.8400 36.6000 # Fe2
 175 1 7  0.0000 32.1100 36.7600 39.8200 # Fe2
 176 1 7  0.0000 32.2600 36.6600 33.5100 # Fe2
 177 1 7  0.0000 34.2300 31.7600 36.5900 # Fe2
 178 1 7  0.0000 37.5400 36.9100 36.5900 # Fe2
 179 1 7  0.0000 37.6700 33.1900 36.6700 # Fe2
 180 1 7  0.0000 37.8100 33.0900 30.3400 # Fe2
 181 1 7  0.0000 32.3900 32.9400 33.5700 # Fe2
 182 1 7  0.0000 35.7000 38.0700 33.5600 # Fe2
 183 1 7  0.0000 39.5000 32.0100 33.5700 # Fe2
 184 1 7  0.0000 34.2600 31.7500 30.5000 # Fe2
 185 1 7  0.0000 37.5600 36.8700 30.5000 # Fe2
 186 1 10  0.7300 31.6300 29.9800 38.0900 # FeS3
 187 1 13 -1.1300 31.1700 28.3400 39.2400 # OHF3
 188 1 4  0.4000 30.6100 28.1400 40.0200 # HB
 189 1 10  0.7300 29.7200 34.6800 41.0200 # FeS3
 190 1 13 -1.1300 28.7400 34.0000 42.7000 # OHF3
 191 1 4  0.4000 27.9700 34.3600 43.1900 # HB
 192 1 10  0.7300 34.3300 30.1500 39.6700 # FeS3
 193 1 13 -1.1300 33.7200 28.5400 40.7900 # OHF3
 194 1 4  0.4000 32.9000 28.3200 41.2800 # HB
 195 1 10  0.7300 32.3800 34.8000 42.5700 # FeS3
 196 1 13 -1.1300 31.3700 34.0900 44.2200 # OHF3
 197 1 4  0.4000 30.4300 33.8300 44.2400 # HB
 198 1 10  1.4600 37.0300 30.0600 41.1100 # FeS3
 199 1 13 -1.1300 38.6500 28.7700 40.9000 # OHF3
 200 1 4  0.4000 39.5000 28.7000 41.3800 # HB
 201 1 13 -1.1300 36.7800 28.3400 42.2600 # OHF3
 202 1 4  0.4000 36.2000 28.1200 43.0200 # HB
 203 1 10  1.4600 29.1000 29.6800 36.4600 # FeS3
 204 1 13 -1.1300 28.5500 28.2200 35.0900 # OHF3
 205 1 4  0.4000 27.6900 28.0200 34.6600 # HB
 206 1 13 -1.1300 28.4300 27.9000 37.3100 # OHF3
 207 1 4  0.4000 27.7800 27.7200 38.0200 # HB
 208 1 10  0.7300 38.0700 40.0000 38.0700 # FeS3
 209 1 13 -1.1300 39.3300 41.0600 39.2900 # OHF3
 210 1 4  0.4000 39.4600 42.0200 39.4800 # HB
 211 1 10  0.7300 32.9900 39.7800 41.0400 # FeS3
 212 1 13 -1.1300 33.2500 40.8800 42.7600 # OHF3
 213 1 4  0.4000 32.9200 41.7500 43.0700 # HB
 214 1 10  0.7300 39.0500 37.5200 39.6800 # FeS3
 215 1 13 -1.1300 40.2400 38.7000 40.8600 # OHF3
 216 1 4  0.4000 40.2800 39.6800 41.0000 # HB
 217 1 10  0.7300 33.9600 37.2900 42.6000 # FeS3
 218 1 13 -1.1300 34.0500 38.3500 44.3800 # OHF3
 219 1 4  0.4000 33.7700 39.2800 44.5300 # HB
 220 1 10  1.4600 40.2700 35.1300 41.1100 # FeS3
 221 1 13 -1.1300 42.1800 34.2800 41.0000 # OHF3
 222 1 4  0.4000 42.9800 34.4800 40.4800 # HB
 223 1 13 -1.1300 41.7700 36.0500 42.2400 # OHF3
 224 1 4  0.4000 41.7800 36.9300 42.6700 # HB
 225 1 10  0.7300 30.4900 39.6300 33.6500 # FeS3
 226 1 13 -1.1300 28.7300 40.5400 33.0900 # OHF3
 227 1 4  0.4000 28.4700 41.4400 32.8000 # HB
 228 1 10  0.7300 30.4500 39.6700 39.5600 # FeS3
 229 1 13 -1.1300 28.8000 40.7200 40.2000 # OHF3
 230 1 4  0.4000 28.6800 41.6700 40.4100 # HB
 231 1 10  0.7300 28.7800 37.0700 39.5500 # FeS3
 232 1 13 -1.1300 27.1500 38.1200 40.2700 # OHF3
 233 1 4  0.4000 27.1100 39.0700 40.4900 # HB
 234 1 10  0.7300 28.7800 37.0100 33.6900 # FeS3
 235 1 13 -1.1300 27.0900 38.0600 33.2000 # OHF3
 236 1 4  0.4000 26.9500 39.0400 33.0700 # HB
 237 1 10  1.4600 42.7500 35.3800 36.7300 # FeS3
 238 1 13 -1.1300 44.4400 34.5500 37.6300 # OHF3
 239 1 4  0.4000 45.1900 34.0600 37.2300 # HB
 240 1 13 -1.1300 43.5000 36.3100 38.4400 # OHF3
 241 1 4  0.4000 43.8100 37.2400 38.5400 # HB
 242 1 10  0.7300 39.4400 30.2200 36.4900 # FeS3
 243 1 13 -1.1300 41.1600 29.2100 37.0200 # OHF3
 244 1 4  0.4000 42.0900 29.5200 36.9700 # HB
 245 1 10  1.4600 37.8100 27.6400 36.7300 # FeS3
 246 1 13 -1.1300 39.3300 26.4200 37.5100 # OHF3
 247 1 4  0.4000 40.2700 26.6300 37.7000 # HB
 248 1 13 -1.1300 37.1800 26.5700 38.4000 # OHF3
 249 1 4  0.4000 36.7100 25.7200 38.4800 # HB
 250 1 10  0.7300 41.1300 32.8500 36.5300 # FeS3
 251 1 13 -1.1300 42.7500 31.7000 37.0600 # OHF3
 252 1 4  0.4000 43.5100 31.8600 37.6800 # HB
 253 1 10  1.4600 27.0900 34.4900 33.4500 # FeS3
 254 1 13 -1.1300 26.4700 33.4500 31.7500 # OHF3
 255 1 4  0.4000 26.0300 33.7400 30.9200 # HB
 256 1 13 -1.1300 25.2800 35.2200 32.7300 # OHF3
 257 1 4  0.4000 24.9000 36.1200 32.7500 # HB
 258 1 10  0.7300 31.8700 29.8500 32.0500 # FeS3
 259 1 13 -1.1300 30.7700 28.6400 30.8000 # OHF3
 260 1 4  0.4000 30.0900 28.8500 30.1100 # HB
 261 1 10  1.4600 29.6700 34.7300 29.0800 # FeS3
 262 1 13 -1.1300 28.1400 33.7500 28.0700 # OHF3
 263 1 4  0.4000 28.0900 33.3500 27.1700 # HB
 264 1 13 -1.1300 27.8200 35.6700 29.2500 # OHF3
 265 1 4  0.4000 27.6200 36.6400 29.1000 # HB
 266 1 10  1.4600 32.6300 27.3900 33.6900 # FeS3
 267 1 13 -1.1300 31.3800 26.0100 32.7500 # OHF3
 268 1 4  0.4000 30.8100 26.1200 31.9600 # HB
 269 1 13 -1.1300 31.4800 26.3000 35.0400 # OHF3
 270 1 4  0.4000 30.5800 26.3800 35.4100 # HB
 271 1 10  0.7300 30.8700 32.3300 30.5100 # FeS3
 272 1 13 -1.1300 29.6300 31.0400 29.5100 # OHF3
 273 1 4  0.4000 28.7900 31.1200 28.9800 # HB
 274 1 10  0.7300 36.9400 30.0500 29.1400 # FeS3
 275 1 13 -1.1300 36.8500 29.0000 27.3800 # OHF3
 276 1 4  0.4000 36.3200 28.2300 27.1100 # HB
 277 1 10  0.7300 39.4700 30.1900 30.6500 # FeS3
 278 1 13 -1.1300 41.1600 29.1600 30.0600 # OHF3
 279 1 4  0.4000 42.0100 29.5600 29.8100 # HB
 280 1 10  1.4600 37.2900 42.4300 36.4400 # FeS3
 281 1 13 -1.1300 38.3100 43.5300 35.0000 # OHF3
 282 1 4  0.4000 38.3000 44.4800 34.7600 # HB
 283 1 13 -1.1300 38.6200 43.7300 37.3700 # OHF3
 284 1 4  0.4000 38.6200 44.6900 37.5400 # HB
 285 1 10  1.4600 32.0800 42.1600 33.4000 # FeS3
 286 1 13 -1.1300 32.6100 43.2400 31.6900 # OHF3
 287 1 4  0.4000 33.0300 44.1300 31.6800 # HB
 288 1 13 -1.1300 30.5400 43.3300 32.6000 # OHF3
 289 1 4  0.4000 29.7700 43.7600 33.0500 # HB
 290 1 10  0.7300 38.3200 39.8500 32.0900 # FeS3
 291 1 13 -1.1300 38.8300 41.5400 31.0300 # OHF3
 292 1 4  0.4000 38.8300 41.7600 30.0700 # HB
 293 1 10  1.4600 32.9400 39.8000 29.0500 # FeS3
 294 1 13 -1.1300 31.3400 41.1300 29.2000 # OHF3
 295 1 4  0.4000 31.2700 42.1000 29.3400 # HB
 296 1 13 -1.1300 33.2300 41.5200 27.9000 # OHF3
 297 1 4  0.4000 34.0600 42.0100 27.6400 # HB
 298 1 10  1.4600 40.8900 40.1800 33.6700 # FeS3
 299 1 13 -1.1300 41.7100 41.8900 32.7900 # OHF3
 300 1 4  0.4000 41.7600 42.1600 31.8400 # HB
 301 1 13 -1.1300 41.4100 41.6500 35.0500 # OHF3
 302 1 4  0.4000 41.0000 42.4900 35.3500 # HB
 303 1 10  0.7300 35.6400 39.6900 30.4900 # FeS3
 304 1 13 -1.1300 36.4100 41.1700 29.2800 # OHF3
 305 1 4  0.4000 36.2300 42.1100 29.1300 # HB
 306 1 10  0.7300 40.2000 35.1300 29.1200 # FeS3
 307 1 13 -1.1300 41.1200 35.7900 27.4000 # OHF3
 308 1 4  0.4000 42.0800 35.8800 27.2100 # HB
 309 1 10  0.7300 41.1500 32.7800 30.6200 # FeS3
 310 1 13 -1.1300 42.7900 31.7300 29.9500 # OHF3
 311 1 4  0.4000 43.6600 32.0800 29.6800 # HB
 312 1 10  0.7300 37.5200 34.9900 27.5800 # FeS3
 313 1 13 -1.1300 38.4100 35.5200 25.8000 # OHF3
 314 1 4  0.4000 38.4800 36.3900 25.3500 # HB
 315 1 10  0.7300 35.9300 32.5400 27.5700 # FeS3
 316 1 13 -1.1300 35.8200 31.4600 25.8100 # OHF3
 317 1 4  0.4000 35.7300 30.4900 25.7500 # HB
 318 1 9  1.2100 37.8600 33.1100 42.9000 # FeS2
 319 1 12 -1.6100 36.6400 33.8800 44.1000 # OHF2
 320 1 4  0.4000 36.6400 33.7900 45.0800 # HB
 321 1 9  1.2100 26.9200 32.5800 36.5100 # FeS2
 322 1 12 -1.6100 26.4600 33.4100 38.1300 # OHF2
 323 1 4  0.4000 25.5900 33.3300 38.6000 # HB
 324 1 9  2.4200 28.7600 31.3400 39.8600 # FeS2
 325 1 12 -1.6100 26.9800 30.7400 40.1100 # OHF2
 326 1 4  0.4000 26.1800 31.2900 40.2000 # HB
 327 1 12 -1.6100 29.8000 30.8500 41.3600 # OHF2
 328 1 4  0.4000 29.4900 30.5600 42.2500 # HB
 329 1 9  2.4200 34.1300 31.6100 42.9900 # FeS2
 330 1 12 -1.6100 32.4700 30.7500 43.2300 # OHF2
 331 1 4  0.4000 31.5400 31.0500 43.1100 # HB
 332 1 12 -1.6100 34.8100 31.2200 44.7200 # OHF2
 333 1 4  0.4000 35.2500 31.8600 45.3100 # HB
 334 1 9  1.2100 34.2600 27.9200 36.8500 # FeS2
 335 1 12 -1.6100 34.2100 26.0700 37.1600 # OHF2
 336 1 4  0.4000 34.1200 25.6000 38.0200 # HB
 337 1 9  1.2100 33.7400 43.2400 36.4700 # FeS2
 338 1 12 -1.6100 32.7800 43.2500 38.0800 # OHF2
 339 1 4  0.4000 32.6000 44.0600 38.6200 # HB
 340 1 9  2.4200 35.6300 42.0700 39.8400 # FeS2
 341 1 12 -1.6100 36.5800 41.7400 41.4400 # OHF2
 342 1 4  0.4000 36.3300 41.2500 42.2600 # HB
 343 1 12 -1.6100 35.3600 43.9400 40.1100 # OHF2
 344 1 4  0.4000 35.9800 44.6600 40.2600 # HB
 345 1 9  2.4200 37.6000 37.1300 43.0000 # FeS2
 346 1 12 -1.6100 37.8600 36.9400 44.8800 # OHF2
 347 1 4  0.4000 38.6000 36.4700 45.3300 # HB
 348 1 12 -1.6100 37.2500 38.9900 42.9400 # OHF2
 349 1 4  0.4000 37.8600 39.7300 43.0900 # HB
 350 1 9  1.2100 41.0300 38.5000 36.8200 # FeS2
 351 1 12 -1.6100 42.7700 39.1500 37.0400 # OHF2
 352 1 4  0.4000 43.0700 40.0300 37.3700 # HB
 353 1 9  2.4200 26.6400 36.6000 36.6100 # FeS2
 354 1 12 -1.6100 24.8900 36.2600 37.3100 # OHF2
 355 1 4  0.4000 24.1400 35.8600 36.8300 # HB
 356 1 12 -1.6100 26.7400 38.4900 36.7800 # OHF2
 357 1 4  0.4000 26.2000 39.1800 36.3600 # HB
 358 1 9  2.4200 29.9800 41.8000 36.5700 # FeS2
 359 1 12 -1.6100 28.1500 41.3100 36.5700 # OHF2
 360 1 4  0.4000 27.6500 40.6300 37.0700 # HB
 361 1 12 -1.6100 29.5900 43.6300 36.9700 # OHF2
 362 1 4  0.4000 30.2800 44.2400 37.3000 # HB
 363 1 9  1.2100 30.2200 37.9800 30.5400 # FeS2
 364 1 12 -1.6100 29.0700 38.6100 29.1800 # OHF2
 365 1 4  0.4000 28.7300 39.5200 29.0200 # HB
 366 1 9  1.2100 39.7300 31.9000 39.6600 # FeS2
 367 1 12 -1.6100 40.7600 31.2300 41.1100 # OHF2
 368 1 4  0.4000 41.5900 30.7100 41.0300 # HB
 369 1 9  2.4200 39.9300 28.0500 33.5900 # FeS2
 370 1 12 -1.6100 40.1400 26.1800 33.2500 # OHF2
 371 1 4  0.4000 40.9500 25.6400 33.2600 # HB
 372 1 12 -1.6100 41.7300 28.6100 33.5400 # OHF2
 373 1 4  0.4000 42.2000 29.4600 33.4300 # HB
 374 1 9  2.4200 43.2700 33.2400 33.5800 # FeS2
 375 1 12 -1.6100 43.2300 31.3600 33.5400 # OHF2
 376 1 4  0.4000 43.9500 30.7100 33.6100 # HB
 377 1 12 -1.6100 45.1100 33.5800 33.2200 # OHF2
 378 1 4  0.4000 45.4300 34.3400 32.6800 # HB
 379 1 9  1.2100 28.8800 31.3800 33.3200 # FeS2
 380 1 12 -1.6100 27.1900 30.5300 33.2100 # OHF2
 381 1 4  0.4000 26.8100 30.0400 32.4600 # HB
 382 1 9  2.4200 34.3100 27.7700 30.3100 # FeS2
 383 1 12 -1.6100 33.6700 28.2300 28.6000 # OHF2
 384 1 4  0.4000 32.7700 28.4300 28.2800 # HB
 385 1 12 -1.6100 34.6900 25.9800 29.8500 # OHF2
 386 1 4  0.4000 35.5200 25.4900 29.9900 # HB
 387 1 9  2.4200 32.2900 32.7700 27.1700 # FeS2
 388 1 12 -1.6100 32.5700 30.9200 27.2400 # OHF2
 389 1 4  0.4000 32.2400 30.2000 26.6800 # HB
 390 1 12 -1.6100 31.8300 33.2100 25.3800 # OHF2
 391 1 4  0.4000 32.1300 33.9800 24.8500 # HB
 392 1 9  1.2100 36.1600 26.5900 33.6800 # FeS2
 393 1 12 -1.6100 37.1000 26.5800 32.0700 # OHF2
 394 1 4  0.4000 37.6000 25.8000 31.7000 # HB
 395 1 9  1.2100 35.6500 41.9000 33.3000 # FeS2
 396 1 12 -1.6100 35.5800 43.7600 33.0100 # OHF2
 397 1 4  0.4000 36.3100 44.4100 32.8700 # HB
 398 1 9  2.4200 41.2000 38.4800 30.3100 # FeS2
 399 1 12 -1.6100 40.2700 39.1100 28.7900 # OHF2
 400 1 4  0.4000 40.2200 40.0400 28.4700 # HB
 401 1 12 -1.6100 43.0100 38.9200 29.8900 # OHF2
 402 1 4  0.4000 43.4900 39.7600 29.8600 # HB
 403 1 9  2.4200 35.8200 38.2000 27.1600 # FeS2
 404 1 12 -1.6100 35.4600 38.7800 25.3700 # OHF2
 405 1 4  0.4000 34.7500 38.4700 24.7800 # HB
 406 1 12 -1.6100 37.6300 38.7100 27.0500 # OHF2
 407 1 4  0.4000 38.0600 39.5600 27.2800 # HB
 408 1 9  1.2100 43.0600 37.2600 33.6900 # FeS2
 409 1 12 -1.6100 43.4600 36.4100 32.0900 # OHF2
 410 1 4  0.4000 44.2200 36.6500 31.4900 # HB
 411 1 9  1.2100 32.0600 36.7800 27.2700 # FeS2
 412 1 12 -1.6100 33.2900 36.0400 26.0600 # OHF2
 413 1 4  0.4000 33.1600 35.9200 25.0900 # HB
 414 2 5 -0.8476  2.1000  5.1600  1.1300 # opls_116
 415 2 6  0.4238  1.9800  5.9600  1.7100 # opls_117
 416 2 6  0.4238  2.5000  5.4300  0.2500 # opls_117
 417 3 5 -0.8476  5.7500 13.2000 12.0300 # opls_116
 418 3 6  0.4238  4.8700 13.1900 11.5500 # opls_117
 419 3 6  0.4238  5.9900 14.1400 12.2700 # opls_117
 420 4 5 -0.8476 15.8400 15.2600  7.0400 # opls_116
 421 4 6  0.4238 15.3800 14.9600  7.8700 # opls_117
 422 4 6  0.4238 15.1700 15.3200  6.2900 # opls_117
 423 5 5 -0.8476 17.7500  6.3600  8.7000 # opls_116
 424 5 6  0.4238 18.3400  7.0600  8.2900 # opls_117
 425 5 6  0.4238 18.1400  6.0600  9.5700 # opls_117
 426 6 5 -0.8476 11.4100  7.2100  6.9000 # opls_116
 427 6 6  0.4238 11.9800  8.0300  6.8200 # opls_117
 428 6 6  0.4238 10.8600  7.2800  7.7300 # opls_117
 429 7 5 -0.8476 17.8500  5.5800  1.5500 # opls_116
 430 7 6  0.4238 17.3600  6.4400  1.6300 # opls_117
 431 7 6  0.4238 17.4900  4.9200  2.2200 # opls_117
 432 8 5 -0.8476  7.1600 11.3500 10.4400 # opls_116
 433 8 6  0.4238  6.5900 11.7300 11.1700 # opls_117
 434 8 6  0.4238  7.6600 12.0800  9.9900 # opls_117
 435 9 5 -0.8476  8.8000  7.5100 18.2400 # opls_116
 436 9 6  0.4238  8.7200  8.1900 18.9700 # opls_117
 437 9 6  0.4238  9.0300  7.9600 17.3800 # opls_117
 438 10 5 -0.8476  6.6800  9.8300  6.5900 # opls_116
 439 10 6  0.4238  7.4700  9.7700  7.2000 # opls_117
 440 10 6  0.4238  6.0000 10.4600  6.9700 # opls_117
 441 11 5 -0.8476  7.3100 11.6100 18.3500 # opls_116
 442 11 6  0.4238  7.8300 12.3700 18.7500 # opls_117
 443 11 6  0.4238  6.4400 11.9600 18.0000 # opls_117
 444 12 5 -0.8476  3.2000 14.2800 10.6500 # opls_116
 445 12 6  0.4238  2.3800 14.1800 10.0900 # opls_117
 446 12 6  0.4238  3.9000 14.7800 10.1400 # opls_117
 447 13 5 -0.8476 14.5000 15.0800 13.6900 # opls_116
 448 13 6  0.4238 15.0700 15.8900 13.7800 # opls_117
 449 13 6  0.4238 13.7300 15.1400 14.3300 # opls_117
 450 14 5 -0.8476  4.2600  3.7500 14.7000 # opls_116
 451 14 6  0.4238  5.1300  3.2600 14.6700 # opls_117
 452 14 6  0.4238  4.0100  3.9300 15.6500 # opls_117
 453 15 5 -0.8476 16.3100  4.4900  7.4000 # opls_116
 454 15 6  0.4238 15.8400  4.8600  6.6000 # opls_117
 455 15 6  0.4238 16.7300  5.2300  7.9100 # opls_117
 456 16 5 -0.8476 11.3500 13.4200 17.0200 # opls_116
 457 16 6  0.4238 11.8600 13.3400 17.8800 # opls_117
 458 16 6  0.4238 10.7900 12.6000 16.8900 # opls_117
 459 17 5 -0.8476  5.8000 18.2900 13.9400 # opls_116
 460 17 6  0.4238  5.1500 17.9000 14.5900 # opls_117
 461 17 6  0.4238  6.2000 19.1100 14.3300 # opls_117
 462 18 5 -0.8476  6.3000  9.5400  1.5400 # opls_116
 463 18 6  0.4238  6.8600  9.8300  0.7500 # opls_117
 464 18 6  0.4238  6.5900 10.0500  2.3500 # opls_117
 465 19 5 -0.8476 15.6600  1.1400 14.2600 # opls_116
 466 19 6  0.4238 15.5800  2.0400 13.8300 # opls_117
 467 19 6  0.4238 15.5800  1.2400 15.2600 # opls_117
 468 20 5 -0.8476 18.4600 17.4300  3.2800 # opls_116
 469 20 6  0.4238 19.2000 17.1400  3.8900 # opls_117
 470 20 6  0.4238 18.5400 18.4100  3.1000 # opls_117
 471 21 5 -0.8476 16.9500  9.4400  6.4300 # opls_116
 472 21 6  0.4238 17.5800  8.8800  5.9000 # opls_117
 473 21 6  0.4238 16.5300 10.1300  5.8400 # opls_117
 474 22 5 -0.8476 16.3900 11.2900  4.2500 # opls_116
 475 22 6  0.4238 17.0300 11.4400  3.5000 # opls_117
 476 22 6  0.4238 16.6200 11.9000  5.0100 # opls_117
 477 23 5 -0.8476  6.2200 13.8600  7.3500 # opls_116
 478 23 6  0.4238  5.7600 12.9800  7.5000 # opls_117
 479 23 6  0.4238  6.1300 14.1200  6.3900 # opls_117
 480 24 5 -0.8476 12.7100 12.2200 14.2300 # opls_116
 481 24 6  0.4238 12.9400 11.5100 13.5500 # opls_117
 482 24 6  0.4238 13.3700 12.1800 14.9800 # opls_117
 483 25 5 -0.8476  8.2000  0.2900  5.0800 # opls_116
 484 25 6  0.4238  8.7200  1.1000  4.8000 # opls_117
 485 25 6  0.4238  7.2400  0.5200  5.1600 # opls_117
 486 26 5 -0.8476 14.6400 10.5900  2.2300 # opls_116
 487 26 6  0.4238 14.1000  9.7900  2.5000 # opls_117
 488 26 6  0.4238 15.3400 10.7700  2.9200 # opls_117
 489 27 5 -0.8476 11.8900 18.1100 16.0600 # opls_116
 490 27 6  0.4238 11.8600 18.8200 15.3500 # opls_117
 491 27 6  0.4238 11.8700 17.2100 15.6200 # opls_117
 492 28 5 -0.8476 14.6800 14.2400  9.2800 # opls_116
 493 28 6  0.4238 14.0600 14.4500 10.0300 # opls_117
 494 28 6  0.4238 14.6000 13.2700  9.0400 # opls_117
 495 29 5 -0.8476 16.4500 17.8800  5.8000 # opls_116
 496 29 6  0.4238 16.1600 17.6100  4.8800 # opls_117
 497 29 6  0.4238 16.3800 17.1000  6.4200 # opls_117
 498 30 5 -0.8476  6.2600  7.0200  2.6600 # opls_116
 499 30 6  0.4238  6.3300  7.9100  2.2100 # opls_117
 500 30 6  0.4238  5.8900  7.1400  3.5800 # opls_117
 501 31 5 -0.8476 12.9000  3.9000  9.5200 # opls_116
 502 31 6  0.4238 11.9600  3.5800  9.5800 # opls_117
 503 31 6  0.4238 13.4800  3.3600 10.1200 # opls_117
 504 32 5 -0.8476 15.6900 17.1200  3.1600 # opls_116
 505 32 6  0.4238 16.6900 17.1700  3.1600 # opls_117
 506 32 6  0.4238 15.3700 16.8700  2.2400 # opls_117
 507 33 5 -0.8476  7.8800  6.0700 14.4400 # opls_116
 508 33 6  0.4238  7.6300  5.7900 15.3700 # opls_117
 509 33 6  0.4238  7.6100  5.3600 13.8000 # opls_117
 510 34 5 -0.8476 13.9700  4.8100 16.8300 # opls_116
 511 34 6  0.4238 14.0100  5.2500 17.7300 # opls_117
 512 34 6  0.4238 14.5800  4.0200 16.8200 # opls_117
 513 35 5 -0.8476  9.4700  8.8000 15.9000 # opls_116
 514 35 6  0.4238 10.0400  8.1300 15.4300 # opls_117
 515 35 6  0.4238  8.9000  9.2800 15.2300 # opls_117
 516 36 5 -0.8476 10.0300  4.1100 12.0900 # opls_116
 517 36 6  0.4238  9.0700  4.2000 12.3300 # opls_117
 518 36 6  0.4238 10.1100  3.6700 11.1900 # opls_117
 519 37 5 -0.8476 10.8000  6.9900  4.2400 # opls_116
 520 37 6  0.4238 11.0300  7.0400  5.2100 # opls_117
 521 37 6  0.4238  9.9300  6.5000  4.1300 # opls_117
 522 38 5 -0.8476  8.9400  3.6100  2.1100 # opls_116
 523 38 6  0.4238  8.6000  4.3000  1.4700 # opls_117
 524 38 6  0.4238  8.8200  2.7000  1.7100 # opls_117
 525 39 5 -0.8476 16.8900  5.6600 18.2500 # opls_116
 526 39 6  0.4238 16.6300  6.5100 17.7800 # opls_117
 527 39 6  0.4238 17.1400  4.9700 17.5700 # opls_117
 528 40 5 -0.8476 13.8000 11.4600  5.2400 # opls_116
 529 40 6  0.4238 14.6800 11.4200  4.7700 # opls_117
 530 40 6  0.4238 13.2100 12.1300  4.7900 # opls_117
 531 41 5 -0.8476  5.7800  2.4000  8.9400 # opls_116
 532 41 6  0.4238  5.7000  2.3300  9.9400 # opls_117
 533 41 6  0.4238  5.6100  3.3400  8.6600 # opls_117
 534 42 5 -0.8476  9.8800 14.5100  4.7500 # opls_116
 535 42 6  0.4238  9.6200 15.3000  4.2000 # opls_117
 536 42 6  0.4238  9.6000 14.6700  5.7000 # opls_117
 537 43 5 -0.8476  3.3100 17.7800  9.4200 # opls_116
 538 43 6  0.4238  3.8800 16.9700  9.3100 # opls_117
 539 43 6  0.4238  3.7000 18.5400  8.9000 # opls_117
 540 44 5 -0.8476 18.0200 10.4000  8.8300 # opls_116
 541 44 6  0.4238 17.5500 10.2100  7.9700 # opls_117
 542 44 6  0.4238 17.3500 10.4800  9.5700 # opls_117
 543 45 5 -0.8476 12.0900 15.3300 15.0700 # opls_116
 544 45 6  0.4238 12.0300 14.6700 15.8200 # opls_117
 545 45 6  0.4238 11.5000 15.0500 14.3200 # opls_117
 546 46 5 -0.8476 14.9400  7.6500  7.2300 # opls_116
 547 46 6  0.4238 14.9100  7.1700  8.1100 # opls_117
 548 46 6  0.4238 15.7800  8.2000  7.1800 # opls_117
 549 47 5 -0.8476  4.7800 12.6000 17.5400 # opls_116
 550 47 6  0.4238  4.2600 13.0200 16.8000 # opls_117
 551 47 6  0.4238  4.2400 11.8800 17.9700 # opls_117